LAMMPS Description

     1220  atoms
     1130  bonds
     1750  angles
     1070  dihedrals
     200  impropers

     11  atom types
     6  bond types
     7  angle types
     6  dihedral types
     1  improper types

  0 24.375737 xlo xhi
  0 24.375737 ylo yhi
  0 24.375737 zlo zhi

Masses

1 6.941  # 348
2 15.999  # 408
3 12.011  # 409
4 1.008  # 410
5 15.999  # 712
6 12.011  # 713
7 15.999  # 714
8 12.011  # 715
9 1.008  # 718
10 30.974  # 726
11 18.998  # 727

Atoms  # full

1 1 1 1.000000 15.890901 9.845685 11.788792
2 2 1 1.000000 21.199062 7.283701 0.720731
3 3 1 1.000000 9.602344 14.807255 -0.00074
4 4 1 1.000000 15.291028 5.253119 10.161793
5 5 1 1.000000 23.047013 21.238391 13.59447
6 6 1 1.000000 6.177781 10.399771 23.254004
7 7 1 1.000000 4.417982 4.483557 21.959255
8 8 1 1.000000 7.57094 16.439128 4.452039
9 9 1 1.000000 5.168313 3.074912 2.555194
10 10 1 1.000000 4.997271 10.590092 4.837145
11 11 10 1.067950 13.776484 14.751172 21.827735
12 11 11 -0.344658 12.238059 14.37436 22.247579
13 11 11 -0.344658 15.31491 15.127984 21.40789
14 11 11 -0.344658 14.244312 13.217538 22.165542
15 11 11 -0.344658 13.308657 16.284806 21.489927
16 11 11 -0.344658 14.091752 15.188195 23.375193
17 11 11 -0.344658 13.461217 14.314148 20.280276
18 12 10 1.067950 3.428592 5.796636 3.004673
19 12 11 -0.344658 2.559547 6.377329 1.742703
20 12 11 -0.344658 4.297636 5.215944 4.266643
21 12 11 -0.344658 2.06709 5.736166 3.914434
22 12 11 -0.344658 4.790094 5.857106 2.094912
23 12 11 -0.344658 3.704425 7.327698 3.519237
24 12 11 -0.344658 3.152758 4.265575 2.490109
25 13 10 1.067950 5.205616 7.690056 13.207964
26 13 11 -0.344658 6.571234 6.784485 13.214138
27 13 11 -0.344658 3.839998 8.595628 13.20179
28 13 11 -0.344658 5.190904 7.656701 11.569769
29 13 11 -0.344658 5.220329 7.723412 14.846158
30 13 11 -0.344658 6.111089 9.055281 13.172034
31 13 11 -0.344658 4.300144 6.324832 13.243893
32 14 10 1.067950 22.099381 15.987922 9.921639
33 14 11 -0.344658 21.117384 14.720286 10.258968
34 14 11 -0.344658 23.081378 17.255558 9.584311
35 14 11 -0.344658 22.322664 16.241622 11.525008
36 14 11 -0.344658 21.876098 15.734222 8.318271
37 14 11 -0.344658 20.806773 16.994771 9.942333
38 14 11 -0.344658 23.391989 14.981072 9.900946
39 15 10 1.067950 6.168798 13.141365 13.748019
40 15 11 -0.344658 6.648526 14.690092 13.985325
41 15 11 -0.344658 5.68907 11.592637 13.510712
42 15 11 -0.344658 6.343628 13.335083 12.13033
43 15 11 -0.344658 5.993969 12.947646 15.365708
44 15 11 -0.344658 4.61178 13.64029 13.639492
45 15 11 -0.344658 7.725816 12.642439 13.856545
46 16 10 1.067950 1.307918 2.710705 10.197753
47 16 11 -0.344658 0.000834 2.478044 9.237331
48 16 11 -0.344658 2.615002 2.943365 11.158175
49 16 11 -0.344658 0.602097 4.045111 10.835081
50 16 11 -0.344658 2.013739 1.376298 9.560426
51 16 11 -0.344658 1.999553 3.632789 9.033102
52 16 11 -0.344658 0.616284 1.788621 11.362405
53 17 10 1.067950 18.866488 15.929304 19.387308
54 17 11 -0.344658 19.389351 16.857641 18.142392
55 17 11 -0.344658 18.343626 15.000967 20.632224
56 17 11 -0.344658 18.98424 14.595801 18.442366
57 17 11 -0.344658 18.748737 17.262807 20.332249
58 17 11 -0.344658 17.318018 16.141366 18.895088
59 17 11 -0.344658 20.414958 15.717243 19.879528
60 18 10 1.067950 18.845758 14.983517 11.678989
61 18 11 -0.344658 17.873578 16.302543 11.672122
62 18 11 -0.344658 19.817938 13.664492 11.685856
63 18 11 -0.344658 18.954038 15.054821 10.045526
64 18 11 -0.344658 18.737478 14.912214 13.312452
65 18 11 -0.344658 17.531166 14.013932 11.549522
66 18 11 -0.344658 20.16035 15.953103 11.808455
67 19 10 1.067950 12.426237 15.372255 9.572805
68 19 11 -0.344658 11.546309 14.13 10.179055
69 19 11 -0.344658 13.306164 16.614511 8.966556
70 19 11 -0.344658 12.694536 14.513773 8.203121
71 19 11 -0.344658 12.157938 16.230737 10.942489
72 19 11 -0.344658 13.782243 14.736001 10.237213
73 19 11 -0.344658 11.07023 16.00851 8.908398
74 20 10 1.067950 9.268069 12.147301 1.208116
75 20 11 -0.344658 8.219215 13.376889 0.937879
76 20 11 -0.344658 10.316923 10.917713 1.478353
77 20 11 -0.344658 10.224935 12.697335 -0.003032
78 20 11 -0.344658 8.311203 11.597266 2.419264
79 20 11 -0.344658 8.449948 11.214249 0.138021
80 20 11 -0.344658 10.08619 13.080352 2.278211
81 21 7 -0.406021 19.065404 8.196518 14.546774
82 21 7 -0.406021 17.286928 9.125123 15.503577
83 21 5 -0.597281 17.326861 8.855213 13.25787
84 21 8 0.103571 19.286146 8.051054 15.94699
85 21 8 0.103571 18.243179 9.001056 16.55271
86 21 6 0.901398 17.838909 8.738149 14.323221
87 21 9 0.075196 20.323512 8.325768 16.182907
88 21 9 0.075196 19.116616 6.999837 16.235209
89 21 9 0.075196 17.750213 8.601578 17.449814
90 21 9 0.075196 18.662047 9.995175 16.783367
91 22 7 -0.406021 13.043318 21.062599 14.128731
92 22 7 -0.406021 10.889467 21.432509 14.534747
93 22 5 -0.597281 11.552593 19.387145 13.831613
94 22 8 0.103571 12.999603 22.361139 14.713857
95 22 8 0.103571 11.506676 22.712294 14.642883
96 22 6 0.901398 11.802034 20.508678 14.132965
97 22 9 0.075196 13.641349 23.042181 14.138014
98 22 9 0.075196 13.370863 22.305952 15.751156
99 22 9 0.075196 11.130219 23.223894 15.539509
100 22 9 0.075196 11.256907 23.31368 13.752447
101 23 7 -0.406021 5.971137 9.88444 19.072285
102 23 7 -0.406021 7.914098 9.617119 18.026246
103 23 5 -0.597281 6.000149 8.998737 16.990849
104 23 8 0.103571 6.928288 10.527417 19.909501
105 23 8 0.103571 8.263124 10.01653 19.348797
106 23 6 0.901398 6.56829 9.451958 17.930357
107 23 9 0.075196 6.749488 10.240178 20.95486
108 23 9 0.075196 6.821066 11.620992 19.812207
109 23 9 0.075196 9.046129 10.786042 19.302449
110 23 9 0.075196 8.64705 9.143778 19.903622
111 24 7 -0.406021 19.673075 3.719355 12.049903
112 24 7 -0.406021 17.588249 3.970779 12.778628
113 24 5 -0.597281 18.602363 1.959057 12.98404
114 24 8 0.103571 19.4127 5.115805 11.937555
115 24 8 0.103571 17.88788 5.188209 12.101447
116 24 6 0.901398 18.619386 3.095946 12.640438
117 24 9 0.075196 19.769709 5.475867 10.962798
118 24 9 0.075196 19.948768 5.651924 12.738851
119 24 9 0.075196 17.549056 6.037291 12.711081
120 24 9 0.075196 17.360128 5.205822 11.132895
121 25 7 -0.406021 21.106384 3.011362 6.651147
122 25 7 -0.406021 19.099818 3.947553 6.846071
123 25 5 -0.597281 19.268526 1.694631 6.729779
124 25 8 0.103571 21.368538 4.393756 6.876431
125 25 8 0.103571 19.994309 5.03877 6.647022
126 25 6 0.901398 19.771627 2.770564 6.74099
127 25 9 0.075196 22.140519 4.7375 6.174193
128 25 9 0.075196 21.732136 4.532061 7.90868
129 25 9 0.075196 19.757363 5.839256 7.361496
130 25 9 0.075196 19.875738 5.424482 5.620332
131 26 7 -0.406021 1.541657 22.473489 20.076662
132 26 7 -0.406021 1.528935 20.252838 20.173116
133 26 5 -0.597281 0.009108 21.317802 18.87943
134 26 8 0.103571 2.711557 22.133194 20.815596
135 26 8 0.103571 2.474285 20.655984 21.160171
136 26 6 0.901398 0.92904 21.345165 19.630327
137 26 9 0.075196 2.788757 22.785296 21.696536
138 26 9 0.075196 3.600212 22.280069 20.178738
139 26 9 0.075196 3.37561 20.032942 21.077554
140 26 9 0.075196 2.03373 20.522423 22.162667
141 27 7 -0.406021 20.022607 3.930755 21.482072
142 27 7 -0.406021 19.465384 2.909688 23.376189
143 27 5 -0.597281 21.557684 3.73453 23.132139
144 27 8 0.103571 18.619984 3.703202 21.375502
145 27 8 0.103571 18.354351 2.701752 22.508514
146 27 6 0.901398 20.464398 3.544943 22.708286
147 27 9 0.075196 18.38942 3.310247 20.375663
148 27 9 0.075196 18.084212 4.656411 21.52114
149 27 9 0.075196 17.422128 2.893344 23.057739
150 27 9 0.075196 18.357623 1.656288 22.156491
151 28 7 -0.406021 16.831048 16.714994 21.260113
152 28 7 -0.406021 16.864053 17.365515 23.385316
153 28 5 -0.597281 18.363775 15.83058 22.669456
154 28 8 0.103571 15.901306 17.792782 21.326756
155 28 8 0.103571 15.692532 17.964333 22.8381
156 28 6 0.901398 17.449673 16.559692 22.460453
157 28 9 0.075196 14.986662 17.519289 20.782806
158 28 9 0.075196 16.346101 18.687036 20.858423
159 28 9 0.075196 15.635247 19.013458 23.159734
160 28 9 0.075196 14.802599 17.425256 23.204627
161 29 7 -0.406021 15.179056 15.482189 14.810227
162 29 7 -0.406021 14.16432 17.066577 13.626682
163 29 5 -0.597281 14.037712 17.113185 15.884876
164 29 8 0.103571 15.601643 15.262192 13.467278
165 29 8 0.103571 14.620475 16.124154 12.660115
166 29 6 0.901398 14.419777 16.60745 14.880323
167 29 9 0.075196 15.540032 14.189643 13.236857
168 29 9 0.075196 16.647005 15.596083 13.355019
169 29 9 0.075196 15.088648 16.659059 11.822211
170 29 9 0.075196 13.761268 15.544013 12.28312
171 30 7 -0.406021 5.161555 18.537768 1.07674
172 30 7 -0.406021 3.984864 20.330021 1.663241
173 30 5 -0.597281 3.085459 18.27217 1.935209
174 30 8 0.103571 6.069073 19.628797 0.948068
175 30 8 0.103571 5.139284 20.849042 1.008701
176 30 6 0.901398 3.98226 18.972479 1.594351
177 30 9 0.075196 6.616685 19.537501 -0.000108
178 30 9 0.075196 6.788332 19.60487 1.784107
179 30 9 0.075196 5.545506 21.68511 1.594677
180 30 9 0.075196 4.856831 21.214046 0.006744
181 31 7 -0.406021 8.51443 2.236783 9.084811
182 31 7 -0.406021 10.031472 2.73122 10.632348
183 31 5 -0.597281 9.734112 4.131046 8.880289
184 31 8 0.103571 8.318957 1.267507 10.110863
185 31 8 0.103571 9.587729 1.417911 10.962199
186 31 6 0.901398 9.456202 3.138099 9.469942
187 31 9 0.075196 8.207206 0.273327 9.656584
188 31 9 0.075196 7.402259 1.51244 10.673483
189 31 9 0.075196 9.403732 1.356276 12.043745
190 31 9 0.075196 10.369014 0.68943 10.686818
191 32 7 -0.406021 2.067922 12.868163 17.304063
192 32 7 -0.406021 1.92597 13.593598 19.400333
193 32 5 -0.597281 3.615638 14.321985 18.084232
194 32 8 0.103571 0.820414 12.369899 17.779402
195 32 8 0.103571 0.930036 12.579798 19.296341
196 32 6 0.901398 2.639935 13.664133 18.245798
197 32 9 0.075196 0.712993 11.316531 17.485928
198 32 9 0.075196 -0.000217 12.955057 17.331046
199 32 9 0.075196 -0.00036 12.933803 19.76157
200 32 9 0.075196 1.275411 11.674321 19.823365
201 33 7 -0.406021 14.709777 22.798677 8.966363
202 33 7 -0.406021 13.457249 21.355962 10.102365
203 33 5 -0.597281 13.995606 23.341616 11.043106
204 33 8 0.103571 14.415593 21.759381 8.036949
205 33 8 0.103571 13.873143 20.643103 8.940747
206 33 6 0.901398 14.04872 22.579422 10.133651
207 33 9 0.075196 15.331568 21.483914 7.496245
208 33 9 0.075196 13.664023 22.119151 7.314055
209 33 9 0.075196 13.013382 20.108102 8.514158
210 33 9 0.075196 14.650497 19.912152 9.220672
211 34 7 -0.406021 0.977994 2.724439 16.020819
212 34 7 -0.406021 2.094956 0.866393 16.511546
213 34 5 -0.597281 0.001285 0.714608 15.66825
214 34 8 0.103571 2.293188 3.16446 16.348133
215 34 8 0.103571 2.907456 1.924263 17.012788
216 34 6 0.901398 0.926672 1.366156 16.028823
217 34 9 0.075196 2.230702 4.036739 17.013322
218 34 9 0.075196 2.821535 3.45259 15.423634
219 34 9 0.075196 3.954203 1.744862 16.730778
220 34 9 0.075196 2.829846 1.953451 18.112811
221 35 7 -0.406021 2.448958 15.992755 17.186675
222 35 7 -0.406021 3.762701 17.756264 16.862839
223 35 5 -0.597281 3.702133 16.774673 18.900105
224 35 8 0.103571 2.386946 16.242056 15.785071
225 35 8 0.103571 2.9984 17.645255 15.665337
226 35 6 0.901398 3.342557 16.834931 17.769644
227 35 9 0.075196 1.341813 16.185729 15.450743
228 35 9 0.075196 2.977975 15.477803 15.252653
229 35 9 0.075196 3.661381 17.7655 14.797356
230 35 9 0.075196 2.232323 18.438805 15.647154
231 36 7 -0.406021 16.587971 19.778041 15.14765
232 36 7 -0.406021 16.530918 20.141421 12.955515
233 36 5 -0.597281 18.488163 19.573134 13.937292
234 36 8 0.103571 15.205366 19.930756 14.838503
235 36 8 0.103571 15.240461 20.524363 13.423025
236 36 6 0.901398 17.325518 19.806316 14.006223
237 36 9 0.075196 14.736207 20.589589 15.582196
238 36 9 0.075196 14.713952 18.943633 14.869626
239 36 9 0.075196 14.473108 20.113217 12.752561
240 36 9 0.075196 15.165606 21.624962 13.425449
241 37 7 -0.406021 9.425282 23.374662 1.193433
242 37 7 -0.406021 8.675369 21.297502 0.940863
243 37 5 -0.597281 7.200123 23.011192 1.008389
244 37 8 0.103571 10.596208 22.582916 1.012986
245 37 8 0.103571 10.068666 21.153607 1.202605
246 37 6 0.901398 8.31546 22.604219 1.04395
247 37 9 0.075196 11.352466 22.876495 1.754023
248 37 9 0.075196 10.998353 22.752945 -4.7e-05
249 37 9 0.075196 10.498556 20.427224 0.499074
250 37 9 0.075196 10.209732 20.785369 2.232861
251 38 7 -0.406021 8.308674 3.084888 17.3649
252 38 7 -0.406021 7.664028 4.502851 18.950639
253 38 5 -0.597281 6.381634 4.241133 17.10548
254 38 8 0.103571 9.223784 2.874894 18.436799
255 38 8 0.103571 8.972842 4.092884 19.337192
256 38 6 0.901398 7.349066 3.971607 17.739751
257 38 9 0.075196 10.246403 2.823524 18.038224
258 38 9 0.075196 8.98391 1.922605 18.939268
259 38 9 0.075196 8.978901 3.857408 20.410462
260 38 9 0.075196 9.683838 4.913838 19.143686
261 39 7 -0.406021 11.556223 0.067031 21.121926
262 39 7 -0.406021 10.011259 0.81609 22.533575
263 39 5 -0.597281 11.957926 -9.4e-05 23.347194
264 39 8 0.103571 10.561396 0.661618 20.292905
265 39 8 0.103571 9.378816 0.833728 21.256784
266 39 6 0.901398 11.250055 0.266014 22.431238
267 39 9 0.075196 10.347285 -0.004414 19.44567
268 39 9 0.075196 10.935873 1.625485 19.908722
269 39 9 0.075196 8.840226 1.783055 21.129925
270 39 9 0.075196 8.659615 -0.000443 21.194866
271 40 7 -0.406021 17.252683 12.7093 19.645353
272 40 7 -0.406021 18.354099 11.858802 17.912064
273 40 5 -0.597281 19.511227 12.597603 19.710083
274 40 8 0.103571 16.239999 12.187595 18.789326
275 40 8 0.103571 16.999873 11.945822 17.477336
276 40 6 0.901398 18.481708 12.408718 19.148583
277 40 9 0.075196 15.425745 12.919846 18.699607
278 40 9 0.075196 15.840886 11.255273 19.223322
279 40 9 0.075196 16.719252 11.012402 16.970017
280 40 9 0.075196 16.897573 12.786059 16.769902
281 41 7 -0.406021 7.893433 7.657082 7.949455
282 41 7 -0.406021 7.64954 9.857901 8.143537
283 41 5 -0.597281 5.813095 8.540294 8.048536
284 41 8 0.103571 9.212342 8.153645 8.160153
285 41 8 0.103571 9.044788 9.662355 7.93015
286 41 6 0.901398 6.993656 8.671225 8.047167
287 41 9 0.075196 9.900465 7.672588 7.451405
288 41 9 0.075196 9.530592 7.916893 9.189489
289 41 9 0.075196 9.612167 10.282655 8.637754
290 41 9 0.075196 9.301512 9.962875 6.900244
291 42 7 -0.406021 6.346004 10.671587 2.767713
292 42 7 -0.406021 4.18284 10.165234 2.839029
293 42 5 -0.597281 5.717611 8.514438 3.031375
294 42 8 0.103571 5.677261 11.929427 2.801032
295 42 8 0.103571 4.223493 11.546145 2.489853
296 42 6 0.901398 5.444431 9.66218 2.893791
297 42 9 0.075196 6.126165 12.600729 2.055989
298 42 9 0.075196 5.790271 12.375614 3.803536
299 42 9 0.075196 3.484041 12.095473 3.088888
300 42 9 0.075196 3.977427 11.658958 1.420437
301 43 7 -0.406021 16.857986 17.560902 2.061576
302 43 7 -0.406021 14.84807 18.329173 2.619031
303 43 5 -0.597281 16.639823 18.883333 3.884011
304 43 8 0.103571 16.0098 17.183257 0.980625
305 43 8 0.103571 14.605837 17.406541 1.560464
306 43 6 0.901398 16.165517 18.317591 2.953506
307 43 9 0.075196 16.213055 16.139122 0.70545
308 43 9 0.075196 16.215436 17.831978 0.112441
309 43 9 0.075196 13.898188 17.849283 0.845898
310 43 9 0.075196 14.169204 16.482366 1.975407
311 44 7 -0.406021 1.1737 8.664927 3.285976
312 44 7 -0.406021 0.324093 8.183611 5.282789
313 44 5 -0.597281 -0.00113 6.751491 3.56206
314 44 8 0.103571 1.706112 9.657762 4.158505
315 44 8 0.103571 0.831262 9.509029 5.41138
316 44 6 0.901398 0.45089 7.759948 3.997447
317 44 9 0.075196 1.627882 10.643605 3.679708
318 44 9 0.075196 2.768319 9.436252 4.357297
319 44 9 0.075196 1.390458 9.595503 6.353302
320 44 9 0.075196 -0.010717 10.221645 5.424668
321 45 7 -0.406021 19.705097 12.410761 14.796635
322 45 7 -0.406021 17.787321 13.534268 14.771598
323 45 5 -0.597281 19.563857 14.392606 15.878314
324 45 8 0.103571 18.875539 11.6972 13.883862
325 45 8 0.103571 17.48372 12.279781 14.167794
326 45 6 0.901398 19.070932 13.536471 15.218824
327 45 9 0.075196 18.953164 10.620066 14.086369
328 45 9 0.075196 19.213429 11.895943 12.852746
329 45 9 0.075196 16.881945 12.446596 13.263673
330 45 9 0.075196 16.905779 11.664121 14.877634
331 46 7 -0.406021 12.552532 15.372352 3.603481
332 46 7 -0.406021 10.740397 16.047653 4.699332
333 46 5 -0.597281 12.594146 15.475632 5.862969
334 46 8 0.103571 11.656334 15.816757 2.588679
335 46 8 0.103571 10.323226 15.928198 3.34206
336 46 6 0.901398 12.022829 15.61678 4.831202
337 46 9 0.075196 11.640943 15.084378 1.769756
338 46 9 0.075196 12.002014 16.788523 2.19747
339 46 9 0.075196 9.731111 16.810989 3.06372
340 46 9 0.075196 9.699319 15.02527 3.230762
341 47 7 -0.406021 20.393845 23.021502 2.069696
342 47 7 -0.406021 20.581201 22.230929 0.000723
343 47 5 -0.597281 18.720872 23.375939 0.588744
344 47 8 0.103571 21.727491 22.526466 1.987124
345 47 8 0.103571 21.69604 21.687026 0.702005
346 47 6 0.901398 19.785786 22.923875 0.857935
347 47 9 0.075196 21.956442 21.943538 2.889913
348 47 9 0.075196 22.427806 23.376023 1.918715
349 47 9 0.075196 22.59974 21.789449 0.085379
350 47 9 0.075196 21.514418 20.617378 0.901484
351 48 7 -0.406021 5.334975 14.184637 9.594714
352 48 7 -0.406021 3.587775 14.143161 8.221278
353 48 5 -0.597281 5.499977 15.152958 7.556869
354 48 8 0.103571 4.386521 13.336025 10.235638
355 48 8 0.103571 3.096854 13.620904 9.452835
356 48 6 0.901398 4.87385 14.556852 8.371419
357 48 9 0.075196 4.323787 13.59854 11.300722
358 48 9 0.075196 4.714047 12.286903 10.141097
359 48 9 0.075196 2.493793 12.724174 9.253871
360 48 9 0.075196 2.464407 14.379618 9.944049
361 49 7 -0.406021 19.807267 19.274926 8.250335
362 49 7 -0.406021 20.409547 17.225116 7.636909
363 49 5 -0.597281 18.711622 17.491173 9.107931
364 49 8 0.103571 20.75636 19.470282 7.205563
365 49 8 0.103571 21.396189 18.081449 7.067943
366 49 6 0.901398 19.553721 17.94863 8.406169
367 49 9 0.075196 21.465682 20.256133 7.499761
368 49 9 0.075196 20.229393 19.784405 6.288775
369 49 9 0.075196 21.582227 17.782078 6.027193
370 49 9 0.075196 22.333227 17.990119 7.642873
371 50 7 -0.406021 8.756585 13.383419 22.724477
372 50 7 -0.406021 6.797528 14.208536 22.074838
373 50 5 -0.597281 8.569205 15.597307 22.298717
374 50 8 0.103571 7.930562 12.241381 22.514892
375 50 8 0.103571 6.525727 12.854073 22.424183
376 50 6 0.901398 8.091658 14.511444 22.359703
377 50 9 0.075196 8.054455 11.543001 23.354038
378 50 9 0.075196 8.232889 11.739761 21.580096
379 50 9 0.075196 5.894024 12.397621 21.649588
380 50 9 0.075196 5.990834 12.826828 23.388586
381 51 2 -0.456247 4.073815 19.55171 10.818226
382 51 2 -0.456247 5.145127 21.230268 9.963971
383 51 5 -0.638575 5.872339 20.366059 11.925861
384 51 6 1.064859 5.106071 20.381235 10.994711
385 51 3 0.046827 3.888469 18.573335 11.838503
386 51 3 0.046827 6.197556 22.191425 9.99726
387 51 4 0.065426 4.770664 17.920642 11.923864
388 51 4 0.065426 3.011367 17.986258 11.539325
389 51 4 0.065426 3.710697 19.050311 12.814554
390 51 4 0.065426 6.082476 22.797991 9.090448
391 51 4 0.065426 7.181764 21.698468 10.001404
392 51 4 0.065426 6.121706 22.828296 10.891785
393 52 2 -0.456247 15.068738 17.707031 18.274379
394 52 2 -0.456247 16.887856 17.39537 17.139169
395 52 5 -0.638575 15.303192 15.778959 17.111506
396 52 6 1.064859 15.712833 16.8542 17.472737
397 52 3 0.046827 13.786008 17.278799 18.725773
398 52 3 0.046827 17.707043 16.606989 16.27898
399 52 4 0.065426 13.105061 17.111435 17.877327
400 52 4 0.065426 13.404377 18.085868 19.363325
401 52 4 0.065426 13.862663 16.344111 19.3022
402 52 4 0.065426 18.619059 17.192495 16.109026
403 52 4 0.065426 17.199175 16.409877 15.322473
404 52 4 0.065426 17.957047 15.642792 16.747332
405 53 2 -0.456247 20.164615 4.017664 9.363607
406 53 2 -0.456247 18.119451 4.40486 8.761603
407 53 5 -0.638575 18.826109 2.257417 8.87921
408 53 6 1.064859 19.017813 3.44288 8.990406
409 53 3 0.046827 21.23766 3.123289 9.648569
410 53 3 0.046827 16.82947 3.95787 8.350892
411 53 4 0.065426 20.975385 2.442732 10.472956
412 53 4 0.065426 22.089029 3.753205 9.934667
413 53 4 0.065426 21.492921 2.519303 8.764359
414 53 4 0.065426 16.226287 4.863146 8.209044
415 53 4 0.065426 16.372553 3.314061 9.117981
416 53 4 0.065426 16.889949 3.390962 7.409356
417 54 2 -0.456247 2.975044 10.799665 16.767651
418 54 2 -0.456247 3.203647 11.603454 18.766822
419 54 5 -0.638575 5.064832 11.185464 17.547813
420 54 6 1.064859 3.866245 11.195157 17.680973
421 54 3 0.046827 3.521079 10.329899 15.537325
422 54 3 0.046827 4.013822 12.062322 19.846449
423 54 4 0.065426 4.110981 11.116173 15.041995
424 54 4 0.065426 2.663689 10.05038 14.912644
425 54 4 0.065426 4.170914 9.456793 15.702206
426 54 4 0.065426 3.319004 12.354633 20.64348
427 54 4 0.065426 4.625578 12.925086 19.541357
428 54 4 0.065426 4.685233 11.265783 20.201785
429 55 2 -0.456247 17.958051 17.21358 7.011237
430 55 2 -0.456247 19.399959 15.720694 6.38897
431 55 5 -0.638575 18.439592 17.024847 4.80733
432 55 6 1.064859 18.584793 16.686414 5.955727
433 55 3 0.046827 17.04295 18.267576 6.72103
434 55 3 0.046827 20.150817 15.049687 5.379762
435 55 4 0.065426 17.556062 19.113716 6.239029
436 55 4 0.065426 16.624259 18.579316 7.685908
437 55 4 0.065426 16.239651 17.919695 6.053592
438 55 4 0.065426 20.757739 14.299841 5.902113
439 55 4 0.065426 20.801134 15.753787 4.838449
440 55 4 0.065426 19.484891 14.559545 4.65324
441 56 2 -0.456247 16.28843 2.706116 14.210085
442 56 2 -0.456247 16.754846 4.776197 14.648542
443 56 5 -0.638575 15.78833 3.517937 16.263267
444 56 6 1.064859 16.23318 3.653393 15.150524
445 56 3 0.046827 15.767376 1.433534 14.586348
446 56 3 0.046827 16.772616 5.895489 15.531381
447 56 4 0.065426 16.318905 1.019633 15.44429
448 56 4 0.065426 15.889594 0.785128 13.709931
449 56 4 0.065426 14.703141 1.507809 14.857773
450 56 4 0.065426 17.226724 6.719243 14.966854
451 56 4 0.065426 17.368494 5.678572 16.43114
452 56 4 0.065426 15.752883 6.166973 15.844387
453 57 2 -0.456247 5.556804 6.120604 18.869077
454 57 2 -0.456247 7.298064 6.183952 17.581047
455 57 5 -0.638575 7.098314 7.742966 19.210245
456 57 6 1.064859 6.691232 6.777893 18.612454
457 57 3 0.046827 4.781197 6.629949 19.951454
458 57 3 0.046827 8.534325 6.766552 17.175123
459 57 4 0.065426 5.350491 6.599667 20.893022
460 57 4 0.065426 3.89844 5.982508 20.022411
461 57 4 0.065426 4.474514 7.669993 19.761616
462 57 4 0.065426 8.890027 6.164044 16.330176
463 57 4 0.065426 9.269356 6.742378 17.994167
464 57 4 0.065426 8.393439 7.81247 16.862494
465 58 2 -0.456247 8.538048 21.782422 5.12073
466 58 2 -0.456247 7.166099 20.10589 5.075785
467 58 5 -0.638575 7.954986 20.913149 3.113465
468 58 6 1.064859 7.892485 20.932012 4.317697
469 58 3 0.046827 9.366075 22.740259 4.4654
470 58 3 0.046827 6.40885 19.126663 4.368519
471 58 4 0.065426 10.154193 22.244305 3.878493
472 58 4 0.065426 9.813483 23.348618 5.261139
473 58 4 0.065426 8.774274 23.376052 3.789143
474 58 4 0.065426 5.880701 18.542567 5.132303
475 58 4 0.065426 7.066415 18.471163 3.777234
476 58 4 0.065426 5.686353 19.60276 3.68818
477 59 2 -0.456247 16.94329 5.577329 18.586926
478 59 2 -0.456247 18.97065 4.969072 18.123396
479 59 5 -0.638575 17.346927 3.391987 18.155577
480 59 6 1.064859 17.717073 4.533366 18.276747
481 59 3 0.046827 15.562621 5.283004 18.786079
482 59 3 0.046827 19.932483 3.971928 17.787066
483 59 4 0.065426 15.11569 4.853948 17.876285
484 59 4 0.065426 15.081374 6.238358 19.029338
485 59 4 0.065426 15.426975 4.568668 19.612583
486 59 4 0.065426 20.893032 4.494729 17.700474
487 59 4 0.065426 19.678451 3.484893 16.833151
488 59 4 0.065426 19.990015 3.199841 18.569436
489 60 2 -0.456247 6.270009 16.221751 16.814515
490 60 2 -0.456247 5.637657 17.992027 15.736889
491 60 5 -0.638575 7.582799 16.998535 15.141823
492 60 6 1.064859 6.594493 17.064322 15.829834
493 60 3 0.046827 7.194426 15.161761 17.047777
494 60 3 0.046827 5.831481 18.977536 14.725088
495 60 4 0.065426 7.303963 14.530054 16.153065
496 60 4 0.065426 6.779332 14.574844 17.87645
497 60 4 0.065426 8.18533 15.555745 17.321038
498 60 4 0.065426 4.966567 19.6495 14.787237
499 60 4 0.065426 5.880923 18.514288 13.727768
500 60 4 0.065426 6.761986 19.540159 14.895813
501 61 2 -0.456247 18.198879 7.813116 10.848453
502 61 2 -0.456247 20.311894 7.588793 11.272562
503 61 5 -0.638575 19.596786 7.295054 9.144877
504 61 6 1.064859 19.389637 7.54125 10.307164
505 61 3 0.046827 17.095359 7.80351 9.945853
506 61 3 0.046827 21.649815 7.319898 10.86001
507 61 4 0.065426 17.228664 8.554301 9.152062
508 61 4 0.065426 16.209857 8.042722 10.547633
509 61 4 0.065426 16.97888 6.81485 9.475991
510 61 4 0.065426 22.26709 7.399768 11.763374
511 61 4 0.065426 21.984219 8.049321 10.106482
512 61 4 0.065426 21.734579 6.309911 10.43074
513 62 2 -0.456247 10.130463 7.468484 2.513665
514 62 2 -0.456247 11.648376 8.838373 1.796471
515 62 5 -0.638575 12.288972 6.78622 2.505706
516 62 6 1.064859 11.439829 7.615776 2.293036
517 62 3 0.046827 9.733934 6.207718 3.04824
518 62 3 0.046827 13.00571 9.160462 1.502466
519 62 4 0.065426 10.004762 5.387417 2.366096
520 62 4 0.065426 8.64434 6.257732 3.165536
521 62 4 0.065426 10.212311 6.024534 4.022603
522 62 4 0.065426 12.995613 10.184652 1.109517
523 62 4 0.065426 13.421058 8.470456 0.752088
524 62 4 0.065426 13.628537 9.107905 2.408477
525 63 2 -0.456247 9.204638 15.841377 7.754809
526 63 2 -0.456247 7.721496 17.385782 8.086657
527 63 5 -0.638575 7.289365 15.29128 8.828972
528 63 6 1.064859 8.001453 16.093543 8.277846
529 63 3 0.046827 9.658647 14.495281 7.874972
530 63 3 0.046827 6.461785 17.824126 8.590163
531 63 4 0.065426 9.736503 14.198276 8.931991
532 63 4 0.065426 10.647141 14.465582 7.400133
533 63 4 0.065426 8.972488 13.800847 7.366314
534 63 4 0.065426 6.395573 18.892833 8.351507
535 63 4 0.065426 6.398441 17.674026 9.678808
536 63 4 0.065426 5.634466 17.276938 8.113025
537 64 2 -0.456247 16.521813 14.197267 6.552393
538 64 2 -0.456247 18.513238 13.556943 7.117401
539 64 5 -0.638575 17.384535 14.940596 8.50889
540 64 6 1.064859 17.465255 14.295405 7.493189
541 64 3 0.046827 15.325629 14.932145 6.800656
542 64 3 0.046827 19.618058 13.552047 8.018448
543 64 4 0.065426 14.841413 14.595023 7.729874
544 64 4 0.065426 14.669747 14.742047 5.942077
545 64 4 0.065426 15.535329 16.009374 6.886604
546 64 4 0.065426 20.378374 12.906401 7.561791
547 64 4 0.065426 19.323346 13.154043 9.001518
548 64 4 0.065426 20.017466 14.568175 8.158048
549 65 2 -0.456247 6.719083 5.935291 9.937073
550 65 2 -0.456247 5.459364 5.200426 8.334542
551 65 5 -0.638575 6.967165 3.788984 9.261405
552 65 6 1.064859 6.434544 4.868306 9.185148
553 65 3 0.046827 7.748118 5.74918 10.906085
554 65 3 0.046827 5.032944 4.165254 7.451864
555 65 4 0.065426 7.47785 4.957192 11.621118
556 65 4 0.065426 7.851167 6.709359 11.426577
557 65 4 0.065426 8.698976 5.475193 10.423813
558 65 4 0.065426 4.239961 4.602748 6.832791
559 65 4 0.065426 4.642841 3.303244 8.014401
560 65 4 0.065426 5.863718 3.821446 6.816929
561 66 2 -0.456247 6.536801 11.566882 6.575762
562 66 2 -0.456247 7.940476 10.716693 5.160878
563 66 5 -0.638575 6.358846 9.369765 6.060287
564 66 6 1.064859 6.892693 10.444889 5.943874
565 66 3 0.046827 5.423791 11.449815 7.458962
566 66 3 0.046827 8.449388 9.617264 4.409345
567 66 4 0.065426 4.522169 11.126861 6.916431
568 66 4 0.065426 5.270307 12.448299 7.886684
569 66 4 0.065426 5.629973 10.722135 8.258809
570 66 4 0.065426 9.294056 10.011151 3.830671
571 66 4 0.065426 7.681299 9.213315 3.732179
572 66 4 0.065426 8.789366 8.808777 5.074398
573 67 2 -0.456247 21.371698 2.297294 4.504043
574 67 2 -0.456247 19.643177 3.600687 4.412367
575 67 5 -0.638575 19.321045 1.363513 4.285909
576 67 6 1.064859 20.040873 2.325476 4.390368
577 67 3 0.046827 21.963043 1.000062 4.497995
578 67 3 0.046827 18.237334 3.809447 4.300292
579 67 4 0.065426 21.589786 0.39265 5.33662
580 67 4 0.065426 23.043789 1.159466 4.598263
581 67 4 0.065426 21.74327 0.47093 3.558046
582 67 4 0.065426 18.088761 4.895797 4.335559
583 67 4 0.065426 17.699526 3.32599 5.130184
584 67 4 0.065426 17.853029 3.40463 3.351628
585 68 2 -0.456247 19.949302 20.370708 11.164471
586 68 2 -0.456247 17.852704 19.831556 11.071662
587 68 5 -0.638575 19.394861 18.175955 11.14547
588 68 6 1.064859 19.095225 19.34402 11.128765
589 68 3 0.046827 21.330062 20.021348 11.227627
590 68 3 0.046827 16.810982 18.859239 11.027482
591 68 4 0.065426 21.54736 19.434784 12.133323
592 68 4 0.065426 21.881579 20.969404 11.249841
593 68 4 0.065426 21.627746 19.429871 10.348239
594 68 4 0.065426 15.871417 19.423858 10.983892
595 68 4 0.065426 16.828786 18.221271 11.924348
596 68 4 0.065426 16.908904 18.216599 10.139251
597 69 2 -0.456247 3.571109 16.876735 21.35517
598 69 2 -0.456247 1.822377 16.947588 20.077697
599 69 5 -0.638575 2.375446 14.979005 21.049036
600 69 6 1.064859 2.570431 16.151893 20.847173
601 69 3 0.046827 4.47102 16.172254 22.207463
602 69 3 0.046827 0.701796 16.324951 19.453871
603 69 4 0.065426 3.944253 15.757504 23.080424
604 69 4 0.065426 5.219096 16.906526 22.531039
605 69 4 0.065426 4.959126 15.345782 21.6685
606 69 4 0.065426 0.206083 17.109659 18.869083
607 69 4 0.065426 0.008598 15.916847 20.20528
608 69 4 0.065426 1.023357 15.505423 18.793188
609 70 2 -0.456247 10.728446 4.881293 22.491555
610 70 2 -0.456247 9.314977 6.523583 22.48797
611 70 5 -0.638575 8.515165 4.4058 22.489507
612 70 6 1.064859 9.429234 5.192511 22.489583
613 70 3 0.046827 11.027893 3.487427 22.493669
614 70 3 0.046827 7.981252 7.027279 22.485842
615 70 4 0.065426 10.61312 2.996366 23.387193
616 70 4 0.065426 12.122384 3.412844 22.495023
617 70 4 0.065426 10.615196 2.994121 21.600296
618 70 4 0.065426 8.070503 8.120672 22.484847
619 70 4 0.065426 7.431893 6.692439 23.379025
620 70 4 0.065426 7.434066 6.690542 21.592128
621 71 2 -0.456247 17.980588 23.279927 10.439797
622 71 2 -0.456247 19.752483 23.279662 9.192636
623 71 5 -0.638575 18.71638 21.309243 9.603304
624 71 6 1.064859 18.807529 22.504828 9.732549
625 71 3 0.046827 16.905315 22.603684 11.087114
626 71 3 0.046827 20.724579 22.603099 8.399019
627 71 4 0.065426 16.263273 22.091687 10.354172
628 71 4 0.065426 16.334243 23.377939 11.61426
629 71 4 0.065426 17.282785 21.857353 11.802859
630 71 4 0.065426 21.413542 23.377191 8.039038
631 71 4 0.065426 20.251149 22.090978 7.547382